5
	Energy:       0.2871224
F          1.08902        0.00000        1.28324
F         -1.08902        0.00000        1.28324
H          0.00000       -0.90246       -0.13608
H          0.00000        0.90246       -0.13608
C          0.00000        0.00000        0.47849
