25
	Energy:      20.9431303
C         -3.40694        3.62571       -0.79492
C         -2.72586        4.79480       -0.43649
C         -2.71525        2.41236       -0.88487
C         -1.34228        2.36794       -0.61495
C         -0.66172        3.53754       -0.25810
H         -3.24302        1.50667       -1.15440
H         -4.47001        3.65926       -0.99581
H         -0.80807        1.42918       -0.67881
C         -3.97995        3.29282        4.15567
C         -3.25585        4.47678        3.97474
C         -3.30829        2.06688        4.23385
C         -1.91302        2.02596        4.13038
C         -1.18944        3.21020        3.94950
H         -3.86843        1.15056        4.36736
H         -5.05914        3.32436        4.22978
H         -1.39380        1.07783        4.18535
C         -1.35289        4.75018       -0.16931
H          0.39989        3.50320       -0.04914
H         -3.26088        5.73246       -0.36372
H         -0.82621        5.65440        0.10773
C         -1.86103        4.43559        3.87193
H         -0.11088        3.17837        3.86672
H         -3.77521        5.42435        3.91116
H         -1.30145        5.35107        3.72998
Cr        -2.91621        2.79587        1.69568
