9
	Energy:      15.5086423
C         -3.36545        1.63912       -0.01234
O         -2.07612        2.25073        0.03639
H         -3.46073        0.64923        0.50442
H         -3.77748        1.57271       -1.01481
H         -4.06925        2.29967        0.51251
C         -0.80831        1.58392       -0.00731
H         -0.56470        1.02620        0.91340
H         -0.03741        2.37222       -0.04020
H         -0.61147        0.97296       -0.89206
